4
Properties=species:S:1:pos:R:3 total_energy=-22.071964214327636 intra_energy=-21.749536473215812 inter_energy=-0.3224277411118237 pbc="F F F"
O        3.74653000       5.36973000       5.16439000
O        3.58637000       4.51688000       4.28899000
O        6.37826000       4.74437000       5.77736000
O        6.28884000       5.36902000       4.76926000
4
Properties=species:S:1:pos:R:3 total_energy=-21.736819628182275 intra_energy=-21.475764399026957 inter_energy=-0.26105522915531765 pbc="F F F"
O        3.91750000       4.77747000       4.22923000
O        3.01219000       4.77351000       5.00723000
O        6.66027000       4.72161000       5.14702000
O        6.41004000       5.72741000       5.61652000
4
Properties=species:S:1:pos:R:3 total_energy=-21.72921436892193 intra_energy=-21.32097122633968 inter_energy=-0.4082431425822506 pbc="F F F"
O        3.13476000       4.89105000       3.94393000
O        3.54989000       4.44659000       4.92678000
O        6.17278000       5.06163000       5.68909000
O        7.14257000       5.60073000       5.44020000
4
Properties=species:S:1:pos:R:3 total_energy=-21.976739775852366 intra_energy=-21.71283769864749 inter_energy=-0.26390207720487524 pbc="F F F"
O        4.15107000       4.87766000       3.96279000
O        3.28472000       4.46385000       4.64112000
O        6.68581000       5.00838000       5.36703000
O        5.87840000       5.65010000       6.02906000
4
Properties=species:S:1:pos:R:3 total_energy=-21.996654216900424 intra_energy=-21.71052036781657 inter_energy=-0.2861338490838534 pbc="F F F"
O        3.65441000       4.17710000       4.11017000
O        3.76192000       5.34964000       4.43125000
O        6.48724000       5.66433000       5.30132000
O        6.09643000       4.80894000       6.15726000
4
Properties=species:S:1:pos:R:3 total_energy=-22.145804691301237 intra_energy=-21.76222848078396 inter_energy=-0.3835762105172762 pbc="F F F"
O        3.73910000       4.26495000       4.92601000
O        3.45936000       5.16804000       4.12782000
O        6.89573000       5.03861000       5.18807000
O        5.90582000       5.52840000       5.75809000
4
Properties=species:S:1:pos:R:3 total_energy=-22.226877474288813 intra_energy=-21.752062182936243 inter_energy=-0.47481529135257006 pbc="F F F"
O        3.51300000       5.04535000       3.90221000
O        3.82824000       4.23518000       4.78780000
O        5.79300000       5.57508000       5.80508000
O        6.86576000       5.14439000       5.50491000
4
Properties=species:S:1:pos:R:3 total_energy=-21.756455630790697 intra_energy=-21.45118966879545 inter_energy=-0.30526596199524647 pbc="F F F"
O        3.35230000       3.71453000       4.35610000
O        3.52065000       4.81836000       4.80905000
O        6.37687000       5.27485000       5.69161000
O        6.75018000       6.19226000       5.14324000
4
Properties=species:S:1:pos:R:3 total_energy=-21.909004446672043 intra_energy=-21.49522927023554 inter_energy=-0.4137751764365021 pbc="F F F"
O        3.83208000       4.81052000       4.08952000
O        3.45445000       4.06398000       4.90367000
O        6.64122000       6.06409000       5.52839000
O        6.07224000       5.06140000       5.47843000
4
Properties=species:S:1:pos:R:3 total_energy=-21.948922736376517 intra_energy=-21.711681568244785 inter_energy=-0.23724116813173168 pbc="F F F"
O        3.84843000       4.34922000       3.71878000
O        4.27381000       3.88500000       4.71566000
O        5.49507000       6.26315000       5.64100000
O        6.38269000       5.50263000       5.92456000
4
Properties=species:S:1:pos:R:3 total_energy=-22.288994954537884 intra_energy=-21.7645028545503 inter_energy=-0.5244920999875831 pbc="F F F"
O        3.77520000       4.14439000       4.67002000
O        4.61289000       3.76911000       3.89111000
O        6.22545000       6.31502000       5.35062000
O        5.38647000       5.77148000       6.08824000
4
Properties=species:S:1:pos:R:3 total_energy=-22.02354004024346 intra_energy=-21.710107378625253 inter_energy=-0.31343266161820793 pbc="F F F"
O        4.58225000       3.59751000       4.31161000
O        3.61721000       4.35080000       4.47041000
O        5.62424000       5.54369000       5.91532000
O        6.17630000       6.50800000       5.30266000
4
Properties=species:S:1:pos:R:3 total_energy=-21.942022232286945 intra_energy=-21.71898010168661 inter_energy=-0.22304213060033362 pbc="F F F"
O        3.86822000       4.00079000       3.91366000
O        4.70815000       3.50871000       4.69880000
O        5.75244000       6.46333000       5.10644000
O        5.67118000       6.02716000       6.28110000
4
Properties=species:S:1:pos:R:3 total_energy=-21.957256605803195 intra_energy=-21.7729363094586 inter_energy=-0.18432029634459468 pbc="F F F"
O        3.54578000       3.85496000       4.35707000
O        4.65915000       3.60709000       3.86441000
O        6.22898000       5.75765000       5.86043000
O        5.56610000       6.78030000       5.91809000
4
Properties=species:S:1:pos:R:3 total_energy=-22.24670655531463 intra_energy=-21.628608421438912 inter_energy=-0.6180981338757192 pbc="F F F"
O        4.06081000       3.77470000       4.86714000
O        4.36326000       4.35220000       3.85297000
O        6.15623000       6.11735000       5.23098000
O        5.41969000       5.75575000       6.04891000
4
Properties=species:S:1:pos:R:3 total_energy=-21.72845362469434 intra_energy=-21.48474285456723 inter_energy=-0.24371077012710884 pbc="F F F"
O        3.56693000       3.91632000       4.02952000
O        4.61313000       3.64503000       4.48254000
O        6.33082000       5.99787000       5.42162000
O        5.48912000       6.44078000       6.06632000
4
Properties=species:S:1:pos:R:3 total_energy=-21.8448798452564 intra_energy=-21.617668146926917 inter_energy=-0.22721169832948362 pbc="F F F"
O        4.46840000       3.69183000       4.46656000
O        4.43728000       4.56738000       3.67743000
O        5.09808000       6.11716000       6.20920000
O        5.99623000       5.62363000       5.64681000
4
Properties=species:S:1:pos:R:3 total_energy=-22.494169430697184 intra_energy=-21.755743997180616 inter_energy=-0.7384254335165679 pbc="F F F"
O        4.86401000       4.16438000       3.62027000
O        3.98917000       4.07067000       4.43861000
O        6.08470000       5.97058000       5.67173000
O        5.06211000       5.79437000       6.26939000
4
Properties=species:S:1:pos:R:3 total_energy=-22.106687339926793 intra_energy=-21.769188916725398 inter_energy=-0.3374984232013958 pbc="F F F"
O        4.88652000       4.35905000       3.48838000
O        4.11868000       4.06915000       4.40521000
O        5.26903000       6.35282000       5.94230000
O        5.72577000       5.21898000       6.16411000
4
Properties=species:S:1:pos:R:3 total_energy=-21.946673274306704 intra_energy=-21.710849008868536 inter_energy=-0.23582426543816837 pbc="F F F"
O        4.96980000       4.62264000       3.30875000
O        4.11179000       4.01020000       3.96987000
O        5.34491000       5.87540000       5.76956000
O        5.57350000       5.49176000       6.95182000
4
Properties=species:S:1:pos:R:3 total_energy=-21.939101264558303 intra_energy=-21.716650889763514 inter_energy=-0.22245037479478924 pbc="F F F"
O        5.50923000       5.01078000       3.03051000
O        4.42579000       4.67732000       3.55439000
O        5.22815000       5.59418000       6.30076000
O        4.83683000       4.71772000       7.11434000
4
Properties=species:S:1:pos:R:3 total_energy=-22.204212585690584 intra_energy=-21.772437372940658 inter_energy=-0.43177521274992614 pbc="F F F"
O        4.52221000       5.12244000       3.68539000
O        5.48671000       5.25238000       2.96074000
O        5.14451000       4.41069000       7.09730000
O        4.84657000       5.21450000       6.25657000
4
Properties=species:S:1:pos:R:3 total_energy=-21.993316337349825 intra_energy=-21.6500863150668 inter_energy=-0.3432300222830236 pbc="F F F"
O        5.48917000       5.22740000       3.88766000
O        4.93178000       4.40932000       3.23290000
O        4.61615000       5.73438000       6.35436000
O        4.96290000       4.62890000       6.52508000
4
Properties=species:S:1:pos:R:3 total_energy=-21.75391432744982 intra_energy=-21.45714649254751 inter_energy=-0.29676783490231173 pbc="F F F"
O        5.29678000       4.86638000       2.89998000
O        6.11268000       5.00928000       3.71600000
O        4.82769000       4.90958000       6.53513000
O        3.76284000       5.21476000       6.84889000
4
Properties=species:S:1:pos:R:3 total_energy=-21.852387499123324 intra_energy=-21.743883727939647 inter_energy=-0.1085037711836776 pbc="F F F"
O        6.11775000       4.34958000       3.79368000
O        5.43411000       4.69274000       2.88452000
O        3.77590000       5.69885000       6.32095000
O        4.67225000       5.25883000       7.00084000
4
Properties=species:S:1:pos:R:3 total_energy=-21.790392312504082 intra_energy=-21.681527956849095 inter_energy=-0.10886435565498687 pbc="F F F"
O        6.33248000       4.79931000       3.91609000
O        5.78641000       4.68562000       2.80888000
O        3.62811000       5.24277000       6.08120000
O        4.25300000       5.27231000       7.19383000
4
Properties=species:S:1:pos:R:3 total_energy=-21.877442324055664 intra_energy=-21.63440462519611 inter_energy=-0.24303769885955262 pbc="F F F"
O        6.69603000       4.62713000       4.06986000
O        5.47833000       4.85489000       3.85651000
O        3.48389000       4.97439000       5.65553000
O        4.34175000       5.54359000       6.41810000
4
Properties=species:S:1:pos:R:3 total_energy=-22.219714235888205 intra_energy=-21.767493329030913 inter_energy=-0.452220906857292 pbc="F F F"
O        6.64202000       4.51549000       4.23858000
O        5.53661000       4.66240000       3.70126000
O        3.33669000       5.22110000       6.16362000
O        4.48468000       5.60101000       5.89654000
4
Properties=species:S:1:pos:R:3 total_energy=-22.57046892998551 intra_energy=-21.715540852837876 inter_energy=-0.8549280771476333 pbc="F F F"
O        5.55364000       4.26575000       3.77155000
O        6.21401000       4.91057000       4.53593000
O        4.46425000       5.72930000       6.20351000
O        3.76810000       5.09438000       5.48901000
4
Properties=species:S:1:pos:R:3 total_energy=-22.2232388939301 intra_energy=-21.607940075035003 inter_energy=-0.6152988188950985 pbc="F F F"
O        5.55170000       3.98083000       4.11187000
O        6.45020000       4.72324000       4.29482000
O        4.38044000       5.87927000       6.17225000
O        3.61766000       5.41665000       5.42105000
4
Properties=species:S:1:pos:R:3 total_energy=-22.356188282515177 intra_energy=-21.604201799613293 inter_energy=-0.7519864829018843 pbc="F F F"
O        6.45685000       4.69648000       4.35234000
O        5.49572000       4.13635000       3.97649000
O        3.62212000       5.21868000       5.61703000
O        4.42531000       5.94850000       6.05415000
4
Properties=species:S:1:pos:R:3 total_energy=-21.90035681693098 intra_energy=-21.745816517123785 inter_energy=-0.15454029980719497 pbc="F F F"
O        6.07519000       4.71481000       3.74603000
O        6.29500000       3.93389000       4.62240000
O        3.57686000       6.22589000       5.81569000
O        4.05296000       5.12542000       5.81587000
4
Properties=species:S:1:pos:R:3 total_energy=-22.24687744964922 intra_energy=-21.7676951558542 inter_energy=-0.4791822937950201 pbc="F F F"
O        5.84146000       4.27800000       3.76918000
O        6.52948000       4.35114000       4.77494000
O        4.04587000       5.76777000       6.30051000
O        3.58319000       5.60310000       5.15536000
4
Properties=species:S:1:pos:R:3 total_energy=-21.841960925728927 intra_energy=-21.71193092111389 inter_energy=-0.1300300046150369 pbc="F F F"
O        5.85016000       4.39130000       3.91338000
O        6.72846000       3.69967000       3.35972000
O        4.25613000       5.67363000       6.21759000
O        3.16525000       6.23539000       6.50932000
4
Properties=species:S:1:pos:R:3 total_energy=-21.941834854248555 intra_energy=-21.749545345922343 inter_energy=-0.19228950832621194 pbc="F F F"
O        6.31500000       4.25667000       4.44820000
O        5.49515000       4.09102000       3.52777000
O        4.36569000       6.00619000       6.54326000
O        3.82416000       5.64612000       5.48077000
4
Properties=species:S:1:pos:R:3 total_energy=-21.978191397090086 intra_energy=-21.788048463170526 inter_energy=-0.19014293391956016 pbc="F F F"
O        7.07493000       3.67864000       3.77270000
O        6.21768000       4.22629000       4.44866000
O        3.79094000       5.65871000       5.71190000
O        2.91644000       6.43637000       6.06674000
4
Properties=species:S:1:pos:R:3 total_energy=-22.059483901763087 intra_energy=-21.734577269508918 inter_energy=-0.3249066322541694 pbc="F F F"
O        6.11649000       4.09291000       4.17723000
O        5.06091000       4.39073000       3.72011000
O        4.92856000       6.04166000       5.94028000
O        3.89404000       5.47470000       6.16238000
4
Properties=species:S:1:pos:R:3 total_energy=-21.99967529559217 intra_energy=-21.599964000966793 inter_energy=-0.39971129462537647 pbc="F F F"
O        5.77518000       4.82147000       3.80547000
O        5.34436000       3.75154000       4.00794000
O        4.71825000       5.61608000       6.59986000
O        4.16221000       5.81091000       5.58673000
4
Properties=species:S:1:pos:R:3 total_energy=-21.92728208731296 intra_energy=-21.59285536983134 inter_energy=-0.33442671748161956 pbc="F F F"
O        5.82128000       5.02120000       3.89738000
O        5.56474000       3.93232000       3.53559000
O        4.44888000       5.08001000       6.63473000
O        4.16510000       5.96647000       5.93230000
4
Properties=species:S:1:pos:R:3 total_energy=-22.084680887928698 intra_energy=-21.750967664444033 inter_energy=-0.3337132234846649 pbc="F F F"
O        5.38829000       5.34620000       3.68622000
O        6.30480000       4.68220000       4.09167000
O        3.59608000       4.78943000       6.02483000
O        4.71083000       5.18217000       6.19729000
4
Properties=species:S:1:pos:R:3 total_energy=-22.540916466433373 intra_energy=-21.72595111855844 inter_energy=-0.8149653478749315 pbc="F F F"
O        5.99463000       5.25812000       4.01856000
O        4.98868000       4.72252000       3.50717000
O        5.13142000       4.99068000       6.30311000
O        3.88528000       5.02869000       6.17115000
4
Properties=species:S:1:pos:R:3 total_energy=-21.774258876100248 intra_energy=-21.589345941348256 inter_energy=-0.184912934751992 pbc="F F F"
O        5.99787000       4.60941000       2.50622000
O        5.66898000       5.15929000       3.60780000
O        3.69908000       5.08256000       7.37924000
O        4.63408000       5.14874000       6.50673000
4
Properties=species:S:1:pos:R:3 total_energy=-22.038405482984672 intra_energy=-21.754139002992815 inter_energy=-0.2842664799918566 pbc="F F F"
O        5.30208000       4.93056000       3.14166000
O        5.98193000       4.85734000       4.17425000
O        4.21226000       4.50149000       6.29559000
O        4.50374000       5.71061000       6.38849000
4
Properties=species:S:1:pos:R:3 total_energy=-22.024537262083868 intra_energy=-21.70682858089731 inter_energy=-0.31770868118655926 pbc="F F F"
O        6.35299000       5.09968000       4.18244000
O        5.31727000       4.80079000       3.68072000
O        4.10188000       4.50080000       6.28407000
O        4.22786000       5.59873000       5.85277000
4
Properties=species:S:1:pos:R:3 total_energy=-22.039129553692874 intra_energy=-21.46469773606168 inter_energy=-0.5744318176311936 pbc="F F F"
O        5.60933000       5.68724000       3.83251000
O        6.45739000       4.98606000       4.19797000
O        3.63183000       4.78952000       5.53120000
O        4.30145000       4.53719000       6.43833000
4
Properties=species:S:1:pos:R:3 total_energy=-21.995022205615896 intra_energy=-21.517452767297073 inter_energy=-0.4775694383188238 pbc="F F F"
O        5.90650000       5.83864000       4.42513000
O        5.91656000       5.02773000       3.58988000
O        4.28220000       4.02040000       5.96591000
O        3.89474000       5.11323000       6.01908000
4
Properties=species:S:1:pos:R:3 total_energy=-22.05800490619731 intra_energy=-21.77152361568733 inter_energy=-0.2864812905099825 pbc="F F F"
O        6.24389000       4.99786000       4.05260000
O        5.91981000       6.14020000       4.25522000
O        4.19440000       4.91691000       6.07225000
O        3.64190000       3.94503000       5.61993000
4
Properties=species:S:1:pos:R:3 total_energy=-21.889951763606405 intra_energy=-21.738532515460975 inter_energy=-0.15141924814543017 pbc="F F F"
O        5.73983000       5.44271000       3.44433000
O        6.30193000       5.42954000       4.55900000
O        3.70440000       4.76158000       5.47429000
O        4.25384000       4.36616000       6.52238000
4
Properties=species:S:1:pos:R:3 total_energy=-21.94297260129224 intra_energy=-21.681586383313515 inter_energy=-0.26138621797872474 pbc="F F F"
O        5.65088000       4.72771000       3.75173000
O        6.20959000       5.82398000       4.02564000
O        4.63722000       4.74481000       6.38703000
O        3.50231000       4.70350000       5.83560000
4
Properties=species:S:1:pos:R:3 total_energy=-21.85724891966038 intra_energy=-21.78741777497089 inter_energy=-0.0698311446894877 pbc="F F F"
O        5.62497000       5.55426000       3.99041000
O        5.26809000       4.63226000       3.28341000
O        4.90219000       5.27449000       6.70319000
O        4.20475000       4.53899000       6.02299000
4
Properties=species:S:1:pos:R:3 total_energy=-21.78637968516705 intra_energy=-21.575457414196535 inter_energy=-0.21092227097051364 pbc="F F F"
O        4.94984000       4.84933000       3.31131000
O        6.08872000       4.65370000       3.18444000
O        4.57782000       5.34833000       6.18104000
O        4.38362000       5.14864000       7.32321000
4
Properties=species:S:1:pos:R:3 total_energy=-21.807707958102583 intra_energy=-21.384967204296117 inter_energy=-0.42274075380646536 pbc="F F F"
O        4.84658000       4.27120000       3.26989000
O        5.79297000       4.78977000       3.67995000
O        4.75837000       5.87899000       6.91901000
O        4.60208000       5.06004000       6.13115000
4
Properties=species:S:1:pos:R:3 total_energy=-21.98830840820665 intra_energy=-21.71158287986782 inter_energy=-0.27672552833882946 pbc="F F F"
O        5.61232000       5.18817000       3.40683000
O        5.35273000       4.20866000       4.05030000
O        3.96712000       5.32131000       6.05953000
O        5.06783000       5.28186000       6.48335000
4
Properties=species:S:1:pos:R:3 total_energy=-22.25002962308372 intra_energy=-21.77373214124782 inter_energy=-0.4762974818358998 pbc="F F F"
O        5.07812000       4.38750000       3.28922000
O        6.04123000       4.41282000       4.07237000
O        4.04226000       6.05913000       6.38613000
O        4.83839000       5.14055000       6.25228000
4
Properties=species:S:1:pos:R:3 total_energy=-21.637161753577857 intra_energy=-21.631869024381558 inter_energy=-0.005292729196298751 pbc="F F F"
O        6.45650000       4.67566000       2.83631000
O        6.33643000       3.76807000       1.96269000
O        4.12599000       5.96808000       7.28794000
O        3.08108000       5.58819000       7.91306000
4
Properties=species:S:1:pos:R:3 total_energy=-21.75901413684369 intra_energy=-21.723065864548516 inter_energy=-0.0359482722951725 pbc="F F F"
O        6.31757000       3.89527000       2.97110000
O        6.47967000       5.05861000       3.18499000
O        3.81956000       5.48557000       6.33329000
O        3.38319000       5.56056000       7.51062000
4
Properties=species:S:1:pos:R:3 total_energy=-21.911862667883724 intra_energy=-21.616543333210757 inter_energy=-0.29531933467296767 pbc="F F F"
O        5.82757000       5.33715000       3.80995000
O        6.33744000       4.52864000       3.15219000
O        4.02335000       5.05232000       7.10595000
O        3.81164000       5.08189000       5.93192000
4
Properties=species:S:1:pos:R:3 total_energy=-21.546134468753735 intra_energy=-21.37255768054638 inter_energy=-0.173576788207356 pbc="F F F"
O        6.59898000       5.61358000       3.27595000
O        5.50568000       5.27652000       3.46358000
O        3.72907000       4.28865000       6.17531000
O        4.16627000       4.82124000       7.08516000
4
Properties=species:S:1:pos:R:3 total_energy=-21.831465968733028 intra_energy=-21.53798165850276 inter_energy=-0.29348431023026933 pbc="F F F"
O        5.66369000       4.98177000       3.55263000
O        6.72931000       5.46692000       3.78489000
O        3.45318000       5.10190000       6.64675000
O        4.15382000       4.44940000       6.01573000
4
Properties=species:S:1:pos:R:3 total_energy=-22.07234162403347 intra_energy=-21.76629847445747 inter_energy=-0.30604314957599854 pbc="F F F"
O        5.73533000       4.72217000       3.65645000
O        6.20543000       5.81383000       3.98025000
O        4.37078000       4.68977000       6.67194000
O        3.68845000       4.77423000       5.69136000
4
Properties=species:S:1:pos:R:3 total_energy=-21.893379683020612 intra_energy=-21.74406448188438 inter_energy=-0.14931520113623264 pbc="F F F"
O        6.17757000       5.41875000       4.01672000
O        5.44332000       5.81592000       3.08726000
O        3.89452000       3.93675000       6.13093000
O        4.48459000       4.82857000       6.76510000
4
Properties=species:S:1:pos:R:3 total_energy=-22.176118785111612 intra_energy=-21.712654456358905 inter_energy=-0.46346432875270693 pbc="F F F"
O        5.51402000       5.37560000       4.12982000
O        6.21429000       6.38055000       4.16308000
O        4.14510000       3.53913000       5.60107000
O        4.12659000       4.70471000       6.10603000
4
Properties=species:S:1:pos:R:3 total_energy=-22.72030860947234 intra_energy=-21.71898280851201 inter_energy=-1.0013258009603305 pbc="F F F"
O        6.30781000       5.40728000       4.51566000
O        5.35039000       5.80448000       3.91448000
O        3.67792000       4.73399000       5.58450000
O        4.66389000       4.05425000       5.98537000
4
Properties=species:S:1:pos:R:3 total_energy=-21.780948429905948 intra_energy=-21.693197762688214 inter_energy=-0.08775066721773328 pbc="F F F"
O        6.38919000       6.20666000       3.85601000
O        5.65316000       5.36590000       3.50645000
O        4.52026000       4.26452000       6.60700000
O        3.43740000       4.16291000       6.03054000
4
Properties=species:S:1:pos:R:3 total_energy=-21.666798204011684 intra_energy=-21.504063606982527 inter_energy=-0.16273459702915716 pbc="F F F"
O        6.34268000       5.14694000       4.40009000
O        5.66114000       5.70962000       3.62876000
O        4.00742000       4.16454000       6.39243000
O        3.98876000       4.97890000       5.57872000
4
Properties=species:S:1:pos:R:3 total_energy=-21.945181123694965 intra_energy=-21.611628607201055 inter_energy=-0.33355251649390993 pbc="F F F"
O        6.08533000       4.67495000       3.86537000
O        6.38274000       5.72145000       4.39794000
O        3.46618000       5.29495000       5.86015000
O        4.06574000       4.30865000       5.87654000
4
Properties=species:S:1:pos:R:3 total_energy=-22.320357248083383 intra_energy=-21.747476594096042 inter_energy=-0.5728806539873403 pbc="F F F"
O        6.13326000       4.68371000       4.09963000
O        6.02069000       5.90592000       4.14803000
O        4.04964000       5.24323000       6.09292000
O        3.79642000       4.16714000       5.65942000
4
Properties=species:S:1:pos:R:3 total_energy=-22.338503117232904 intra_energy=-21.781407538723215 inter_energy=-0.5570955785096885 pbc="F F F"
O        6.24064000       5.84015000       4.50639000
O        5.97483000       4.87405000       3.78439000
O        3.92873000       4.04673000       5.72860000
O        3.85579000       5.23907000       5.98062000
4
Properties=species:S:1:pos:R:3 total_energy=-22.39630233436037 intra_energy=-21.76859357108424 inter_energy=-0.6277087632761322 pbc="F F F"
O        5.76276000       5.81772000       3.84623000
O        6.35775000       4.88396000       4.35713000
O        3.43934000       5.01767000       5.93832000
O        4.44015000       4.28064000       5.85831000
4
Properties=species:S:1:pos:R:3 total_energy=-22.056911915815363 intra_energy=-21.701030713517866 inter_energy=-0.3558812022974962 pbc="F F F"
O        5.50766000       5.50154000       3.76958000
O        6.51330000       5.30334000       4.37390000
O        3.80277000       5.20117000       5.94224000
O        4.17627000       3.99395000       5.91428000
4
Properties=species:S:1:pos:R:3 total_energy=-22.16134515511112 intra_energy=-21.740745178540237 inter_energy=-0.4205999765708839 pbc="F F F"
O        5.53289000       5.78108000       3.68279000
O        6.30961000       5.00358000       4.12442000
O        3.84300000       5.14959000       6.25591000
O        4.31450000       4.06575000       5.93688000
4
Properties=species:S:1:pos:R:3 total_energy=-22.17294755380317 intra_energy=-21.730137393286896 inter_energy=-0.44281016051627375 pbc="F F F"
O        5.83814000       5.02414000       3.73111000
O        6.14220000       5.82632000       4.55798000
O        4.49244000       4.49301000       6.19695000
O        3.52723000       4.65653000       5.51396000
4
Properties=species:S:1:pos:R:3 total_energy=-22.002594547559056 intra_energy=-21.585344961381452 inter_energy=-0.4172495861776042 pbc="F F F"
O        5.70234000       5.56077000       3.65459000
O        6.38723000       5.40327000       4.65230000
O        4.15938000       4.99955000       6.08426000
O        3.75105000       4.03640000       5.60885000
4
Properties=species:S:1:pos:R:3 total_energy=-21.96181347196216 intra_energy=-21.676856686974133 inter_energy=-0.2849567849880259 pbc="F F F"
O        5.93250000       4.74598000       3.92551000
O        6.19981000       5.88454000       4.33859000
O        4.14364000       4.37213000       6.31482000
O        3.72405000       4.99735000       5.42108000
4
Properties=species:S:1:pos:R:3 total_energy=-22.283221471499928 intra_energy=-21.762838506397202 inter_energy=-0.5203829651027263 pbc="F F F"
O        6.52558000       5.19488000       4.68997000
O        5.87063000       5.31174000       3.64352000
O        3.35151000       4.52468000       5.50459000
O        4.25228000       4.96870000       6.16192000
4
Properties=species:S:1:pos:R:3 total_energy=-22.145459048574594 intra_energy=-21.774567706964262 inter_energy=-0.37089134161033144 pbc="F F F"
O        6.65173000       5.39810000       4.29441000
O        5.88973000       4.58327000       3.80723000
O        3.82848000       5.14142000       5.35102000
O        3.63006000       4.87721000       6.54733000
4
Properties=species:S:1:pos:R:3 total_energy=-22.094362450472545 intra_energy=-21.67534474065087 inter_energy=-0.41901770982167363 pbc="F F F"
O        6.73657000       5.28401000       4.63834000
O        6.14972000       4.27775000       4.43847000
O        3.68470000       5.16830000       4.84354000
O        3.42901000       5.26994000       6.07965000
4
Properties=species:S:1:pos:R:3 total_energy=-21.72153976297068 intra_energy=-21.551641398415995 inter_energy=-0.1698983645546832 pbc="F F F"
O        6.78519000       4.32592000       5.53937000
O        6.69303000       5.11636000       4.71059000
O        2.89406000       5.31860000       4.36627000
O        3.62772000       5.23912000       5.38377000
4
Properties=species:S:1:pos:R:3 total_energy=-22.090192313156876 intra_energy=-21.688435880447287 inter_energy=-0.4017564327095897 pbc="F F F"
O        6.52118000       5.40447000       4.86690000
O        6.95034000       4.61853000       5.64326000
O        3.75226000       4.67113000       4.85083000
O        2.77622000       5.30587000       4.63901000
4
Properties=species:S:1:pos:R:3 total_energy=-21.758081063941063 intra_energy=-21.60337104005248 inter_energy=-0.15471002388858324 pbc="F F F"
O        6.47096000       5.08783000       5.23206000
O        7.04259000       4.09159000       5.66537000
O        2.99562000       5.27365000       5.05314000
O        3.49083000       5.54692000       4.04943000
4
Properties=species:S:1:pos:R:3 total_energy=-21.805678075700598 intra_energy=-21.645792414842617 inter_energy=-0.15988566085798084 pbc="F F F"
O        6.30912000       4.22604000       5.84769000
O        7.20685000       3.65912000       5.20011000
O        3.10676000       6.12612000       3.91499000
O        3.37726000       5.98872000       5.03720000
4
Properties=species:S:1:pos:R:3 total_energy=-21.841602430520652 intra_energy=-21.778017437367453 inter_energy=-0.06358499315319932 pbc="F F F"
O        5.66236000       4.33184000       6.64681000
O        6.24722000       4.41893000       5.55893000
O        4.26629000       5.58666000       3.33130000
O        3.82414000       5.66257000       4.46296000
4
Properties=species:S:1:pos:R:3 total_energy=-22.209698103854862 intra_energy=-21.778712916800032 inter_energy=-0.43098518705483 pbc="F F F"
O        5.21472000       4.26891000       6.35100000
O        6.18277000       4.40909000       5.63883000
O        4.61241000       5.93108000       3.54562000
O        3.99011000       5.39093000       4.46455000
4
Properties=species:S:1:pos:R:3 total_energy=-22.009484540571066 intra_energy=-21.714546761530983 inter_energy=-0.2949377790400831 pbc="F F F"