4
Properties=species:S:1:pos:R:3:forces:R:3 energy=-8169.713041555586 dipole="-2.0416324189993085 0.0 0.0" energy_smooth=-8169.713041555586 pbc="F F F"
O        1.55000000       0.62300000       0.00000000       8.37419923       1.35590570      -0.00000000
O        1.55000000      -0.62300000       0.00000000       8.37419922      -1.35590570       0.00000000
O        0.00000000       0.47500000       0.00000000      -8.37419922      46.60875460       0.00000000
O        0.00000000      -0.47500000       0.00000000      -8.37419922     -46.60875460      -0.00000000
4
Properties=species:S:1:pos:R:3:forces:R:3 energy=-8171.379559153447 dipole="-1.6595062576124804 0.0 0.0" energy_smooth=-8171.379559153447 pbc="F F F"
O        1.55000000       0.62300000       0.00000000       8.45844707       0.75508238      -0.00000000
O        1.55000000      -0.62300000       0.00000000       8.45844708      -0.75508239       0.00000000
O        0.00000000       0.49625000       0.00000000      -8.45844708      32.48405772       0.00000000
O        0.00000000      -0.49625000       0.00000000      -8.45844707     -32.48405772       0.00000000
4
Properties=species:S:1:pos:R:3:forces:R:3 energy=-8172.523760288438 dipole="-1.3103719651547527 0.0 0.0" energy_smooth=-8172.523760288438 pbc="F F F"
O        1.55000000       0.62300000       0.00000000       8.53082309       0.19778833      -0.00000000
O        1.55000000      -0.62300000       0.00000000       8.53082309      -0.19778833       0.00000000
O        0.00000000       0.51750000       0.00000000      -8.53082309      21.86567254       0.00000000
O        0.00000000      -0.51750000       0.00000000      -8.53082309     -21.86567254      -0.00000000
4
Properties=species:S:1:pos:R:3:forces:R:3 energy=-8173.275484532574 dipole="-0.9924503191106893 0.0 0.0" energy_smooth=-8173.275484532574 pbc="F F F"
O        1.55000000       0.62300000       0.00000000       8.59196674      -0.31932752      -0.00000000
O        1.55000000      -0.62300000       0.00000000       8.59196674       0.31932752       0.00000000
O        0.00000000       0.53875000       0.00000000      -8.59196674      13.89232693       0.00000000
O        0.00000000      -0.53875000       0.00000000      -8.59196674     -13.89232693      -0.00000000
4
Properties=species:S:1:pos:R:3:forces:R:3 energy=-8173.733208964486 dipole="-0.7037841747133093 0.0 0.0" energy_smooth=-8173.733208964486 pbc="F F F"
O        1.55000000       0.62300000       0.00000000       8.64212970      -0.79955383       0.00000000
O        1.55000000      -0.62300000       0.00000000       8.64212970       0.79955383       0.00000000
O        0.00000000       0.56000000       0.00000000      -8.64212970       7.94140199      -0.00000000
O        0.00000000      -0.56000000       0.00000000      -8.64212970      -7.94140199      -0.00000000
4
Properties=species:S:1:pos:R:3:forces:R:3 energy=-8173.972192538019 dipole="-0.44236555226661983 0.0 0.0" energy_smooth=-8173.972192538019 pbc="F F F"
O        1.55000000       0.62300000       0.00000000       8.68128297      -1.24596162       0.00000000
O        1.55000000      -0.62300000       0.00000000       8.68128297       1.24596162       0.00000000
O        0.00000000       0.58125000       0.00000000      -8.68128298       3.52534334      -0.00000000
O        0.00000000      -0.58125000       0.00000000      -8.68128297      -3.52534333      -0.00000000
4
Properties=species:S:1:pos:R:3:forces:R:3 energy=-8174.049202948018 dipole="-0.2060848022166027 -0.0 0.0" energy_smooth=-8174.049202948018 pbc="F F F"
O        1.55000000       0.62300000       0.00000000       8.70907705      -1.66133927      -0.00000000
O        1.55000000      -0.62300000       0.00000000       8.70907705       1.66133926       0.00000000
O        0.00000000       0.60250000       0.00000000      -8.70907705       0.26647600      -0.00000000
O        0.00000000      -0.60250000       0.00000000      -8.70907705      -0.26647599       0.00000000
4
Properties=species:S:1:pos:R:3:forces:R:3 energy=-8174.007377944658 dipole="0.007142307526253744 0.0 0.0" energy_smooth=-8174.007377944658 pbc="F F F"
O        1.55000000       0.62300000       0.00000000       8.72520272      -2.04843199      -0.00000000
O        1.55000000      -0.62300000       0.00000000       8.72520272       2.04843199       0.00000000
O        0.00000000       0.62375000       0.00000000      -8.72520272      -2.10644239       0.00000000
O        0.00000000      -0.62375000       0.00000000      -8.72520272       2.10644239      -0.00000000
4
Properties=species:S:1:pos:R:3:forces:R:3 energy=-8173.879607473918 dipole="0.19932375665794258 0.0 -0.0" energy_smooth=-8173.879607473918 pbc="F F F"
O        1.55000000       0.62300000       0.00000000       8.72931940      -2.40928626      -0.00000000
O        1.55000000      -0.62300000       0.00000000       8.72931940       2.40928625       0.00000000
O        0.00000000       0.64500000       0.00000000      -8.72931941      -3.81054610      -0.00000000
O        0.00000000      -0.64500000       0.00000000      -8.72931940       3.81054611       0.00000000
4
Properties=species:S:1:pos:R:3:forces:R:3 energy=-8173.690540612789 dipole="0.3723404375519257 0.0 -0.0" energy_smooth=-8173.690540612789 pbc="F F F"
O        1.55000000       0.62300000       0.00000000       8.72110991      -2.74591754      -0.00000000
O        1.55000000      -0.62300000       0.00000000       8.72110990       2.74591755       0.00000000
O        0.00000000       0.66625000       0.00000000      -8.72110991      -5.01448175      -0.00000000
O        0.00000000      -0.66625000       0.00000000      -8.72110991       5.01448174       0.00000000
4
Properties=species:S:1:pos:R:3:forces:R:3 energy=-8173.458777263986 dipole="0.5281494949751835 0.0 -0.0" energy_smooth=-8173.458777263986 pbc="F F F"
O        1.55000000       0.62300000       0.00000000       8.70032219      -3.06009480       0.00000000
O        1.55000000      -0.62300000       0.00000000       8.70032218       3.06009480       0.00000000
O        0.00000000       0.68750000       0.00000000      -8.70032218      -5.83636782      -0.00000000
O        0.00000000      -0.68750000       0.00000000      -8.70032218       5.83636782      -0.00000000
4
Properties=species:S:1:pos:R:3:forces:R:3 energy=-8173.19860628025 dipole="0.6683268117271031 0.0 0.0" energy_smooth=-8173.19860628025 pbc="F F F"
O        1.55000000       0.62300000       0.00000000       8.66687197      -3.35329378       0.00000000
O        1.55000000      -0.62300000       0.00000000       8.66687197       3.35329379       0.00000000
O        0.00000000       0.70875000       0.00000000      -8.66687197      -6.36433985      -0.00000000
O        0.00000000      -0.70875000       0.00000000      -8.66687197       6.36433985      -0.00000000
4
Properties=species:S:1:pos:R:3:forces:R:3 energy=-8172.92095149652 dipole="0.79452452300059 0.0 -0.0" energy_smooth=-8172.92095149652 pbc="F F F"
O        1.55000000       0.62300000       0.00000000       8.62076214      -3.62691148       0.00000000
O        1.55000000      -0.62300000       0.00000000       8.62076214       3.62691148       0.00000000
O        0.00000000       0.73000000       0.00000000      -8.62076214      -6.66982030      -0.00000000
O        0.00000000      -0.73000000       0.00000000      -8.62076214       6.66982030      -0.00000000
4
Properties=species:S:1:pos:R:3:forces:R:3 energy=-8172.63405914284 dipole="0.908166006807994 0.0 -0.0" energy_smooth=-8172.63405914284 pbc="F F F"
O        1.55000000       0.62300000       0.00000000       8.56205974      -3.88217090       0.00000068
O        1.55000000      -0.62300000       0.00000000       8.56205978       3.88217086      -0.00000068
O        0.00000000       0.75125000       0.00000000      -8.56205977      -6.80617698      -0.00000050
O        0.00000000      -0.75125000       0.00000000      -8.56205975       6.80617702       0.00000049
4
Properties=species:S:1:pos:R:3:forces:R:3 energy=-8172.344307944071 dipole="1.010547553839133 0.0 0.0" energy_smooth=-8172.344307944071 pbc="F F F"
O        1.55000000       0.62300000       0.00000000       8.49086953      -4.12014311      -0.00000415
O        1.55000000      -0.62300000       0.00000000       8.49086954       4.12014309       0.00000416
O        0.00000000       0.77250000       0.00000000      -8.49086956      -6.80951984       0.00000305
O        0.00000000      -0.77250000       0.00000000      -8.49086952       6.80951985      -0.00000305
4
Properties=species:S:1:pos:R:3:forces:R:3 energy=-8172.0567172194205 dipole="1.102889202390307 0.0 0.0" energy_smooth=-8172.0567172194205 pbc="F F F"
O        1.55000000       0.62300000       0.00000000       8.40668992      -4.34173403      -0.00000039
O        1.55000000      -0.62300000       0.00000000       8.40668980       4.34173418       0.00000036
O        0.00000000       0.79375000       0.00000000      -8.40668970      -6.70944425       0.00000032
O        0.00000000      -0.79375000       0.00000000      -8.40669002       6.70944411      -0.00000029
4
Properties=species:S:1:pos:R:3:forces:R:3 energy=-8171.775024902479 dipole="1.186207651041765 0.0 0.0" energy_smooth=-8171.775024902479 pbc="F F F"
O        1.55000000       0.62300000       0.00000000       8.30795614      -4.54757024      -0.00000460
O        1.55000000      -0.62300000       0.00000000       8.30795601       4.54757044       0.00000466
O        0.00000000       0.81500000       0.00000000      -8.30795587      -6.53711996       0.00000337
O        0.00000000      -0.81500000       0.00000000      -8.30795628       6.53711976      -0.00000343
4
Properties=species:S:1:pos:R:3:forces:R:3 energy=-8171.501745725106 dipole="1.261468763444745 0.0 0.0" energy_smooth=-8171.501745725106 pbc="F F F"
O        1.55000000       0.62300000       0.00000000       8.19476023      -4.73811545      -0.00000306
O        1.55000000      -0.62300000       0.00000000       8.19476011       4.73811548       0.00000306
O        0.00000000       0.83625000       0.00000000      -8.19476018      -6.31587878       0.00000241
O        0.00000000      -0.83625000       0.00000000      -8.19476016       6.31587875      -0.00000241
4
Properties=species:S:1:pos:R:3:forces:R:3 energy=-8171.429446598509 dipole="0.2802021287168017 -0.0 0.016063837567944366" energy_smooth=-8171.228466547733 pbc="F F F"
O        1.55000000       0.62300000       0.00000000      -1.93594374       7.96581414      -0.00001929
O        1.55000000      -0.62300000       0.00000000      -1.93594644      -7.96582960       0.00002159
O        0.00000000       0.85750000       0.00000000       1.93593046      -0.31638149       0.00001371
O        0.00000000      -0.85750000       0.00000000       1.93595972       0.31639695      -0.00001601
4
Properties=species:S:1:pos:R:3:forces:R:3 energy=-8171.424954515555 dipole="0.49663183898744456 -0.0 -0.029458841362733412" energy_smooth=-8170.955187370359 pbc="F F F"
O        1.55000000       0.62300000       0.00000000      -2.16031439       7.24280909      -0.00000601
O        1.55000000      -0.62300000       0.00000000      -2.16031432      -7.24280884      -0.00000546
O        0.00000000       0.87875000       0.00000000       2.16031458       0.08860449       0.00000593
O        0.00000000      -0.87875000       0.00000000       2.16031413      -0.08860474       0.00000554
4
Properties=species:S:1:pos:R:3:forces:R:3 energy=-8170.539895221601 dipole="1.3780332556703665 -0.0 0.0" energy_smooth=-8170.681908192986 pbc="F F F"
O        1.55000000       0.62300000       0.00000000      -5.49527975       5.86829160      -0.00000000
O        1.55000000      -0.62300000       0.00000000      -5.49527975      -5.86829159      -0.00000000
O        0.00000000       0.90000000       0.00000000       5.49527976       7.91744097       0.00000000
O        0.00000000      -0.90000000       0.00000000       5.49527975      -7.91744097      -0.00000000
4
Properties=species:S:1:pos:R:3:forces:R:3 energy=-8170.349082441888 dipole="-2.092492765476297 0.0 0.0" energy_smooth=-8170.349082441888 pbc="F F F"
O        1.59250000       0.62300000       0.00000000       6.64337753       1.19812601      -0.00000000
O        1.59250000      -0.62300000       0.00000000       6.64337753      -1.19812601       0.00000000
O        0.00000000       0.47500000       0.00000000      -6.64337753      46.78294580       0.00000000
O        0.00000000      -0.47500000       0.00000000      -6.64337752     -46.78294580       0.00000000
4
Properties=species:S:1:pos:R:3:forces:R:3 energy=-8172.022480515116 dipole="-1.7003267056095037 0.0 -0.0" energy_smooth=-8172.022480515116 pbc="F F F"
O        1.59250000       0.62300000       0.00000000       6.72111608       0.62183330      -0.00000000
O        1.59250000      -0.62300000       0.00000000       6.72111608      -0.62183330       0.00000000
O        0.00000000       0.49625000       0.00000000      -6.72111608      32.63404869       0.00000000
O        0.00000000      -0.49625000       0.00000000      -6.72111608     -32.63404870      -0.00000000
4
Properties=species:S:1:pos:R:3:forces:R:3 energy=-8173.172578151768 dipole="-1.3423217180390978 0.0 -0.0" energy_smooth=-8173.172578151768 pbc="F F F"
O        1.59250000       0.62300000       0.00000000       6.78755038       0.08963957      -0.00000000
O        1.59250000      -0.62300000       0.00000000       6.78755038      -0.08963958      -0.00000000
O        0.00000000       0.51750000       0.00000000      -6.78755038      21.99339759       0.00000000
O        0.00000000      -0.51750000       0.00000000      -6.78755038     -21.99339759      -0.00000000
4
Properties=species:S:1:pos:R:3:forces:R:3 energy=-8173.929276200988 dipole="-1.0165206579980997 0.0 -0.0" energy_smooth=-8173.929276200988 pbc="F F F"
O        1.59250000       0.62300000       0.00000000       6.84348264      -0.40188480      -0.00000000
O        1.59250000      -0.62300000       0.00000000       6.84348264       0.40188480       0.00000000
O        0.00000000       0.53875000       0.00000000      -6.84348264      13.99878640       0.00000000
O        0.00000000      -0.53875000       0.00000000      -6.84348264     -13.99878640      -0.00000000
4
Properties=species:S:1:pos:R:3:forces:R:3 energy=-8174.391082388914 dipole="-0.7208392933969973 0.0 -0.0" energy_smooth=-8174.391082388914 pbc="F F F"
O        1.59250000       0.62300000       0.00000000       6.88937138      -0.85611660      -0.00000000
O        1.59250000      -0.62300000       0.00000000       6.88937138       0.85611660       0.00000000
O        0.00000000       0.56000000       0.00000000      -6.88937138       8.02706218       0.00000000
O        0.00000000      -0.56000000       0.00000000      -6.88937138      -8.02706218       0.00000000
4
Properties=species:S:1:pos:R:3:forces:R:3 energy=-8174.633262322001 dipole="-0.45311713975275986 0.0 0.0" energy_smooth=-8174.633262322001 pbc="F F F"
O        1.59250000       0.62300000       0.00000000       6.92540465      -1.27620388      -0.00000000
O        1.59250000      -0.62300000       0.00000000       6.92540465       1.27620388       0.00000000
O        0.00000000       0.58125000       0.00000000      -6.92540465       3.59002075       0.00000000
O        0.00000000      -0.58125000       0.00000000      -6.92540465      -3.59002074       0.00000000
4
Properties=species:S:1:pos:R:3:forces:R:3 energy=-8174.712565352335 dipole="-0.21111746018883842 0.0 0.0" energy_smooth=-8174.712565352335 pbc="F F F"
O        1.59250000       0.62300000       0.00000000       6.95147716      -1.66512971      -0.00000000
O        1.59250000      -0.62300000       0.00000000       6.95147716       1.66512971      -0.00000000
O        0.00000000       0.60250000       0.00000000      -6.95147716       0.30966228       0.00000000
O        0.00000000      -0.60250000       0.00000000      -6.95147715      -0.30966228       0.00000000
4
Properties=species:S:1:pos:R:3:forces:R:3 energy=-8174.67210769753 dipole="0.007345647242303674 -0.0 -0.0" energy_smooth=-8174.67210769753 pbc="F F F"
O        1.59250000       0.62300000       0.00000000       6.96742794      -2.02555329      -0.00000000
O        1.59250000      -0.62300000       0.00000000       6.96742793       2.02555329       0.00000000
O        0.00000000       0.62375000       0.00000000      -6.96742794      -2.08528657      -0.00000000
O        0.00000000      -0.62375000       0.00000000      -6.96742793       2.08528657       0.00000000
4
Properties=species:S:1:pos:R:3:forces:R:3 energy=-8174.544761394692 dipole="0.20430557970116583 0.0 0.0" energy_smooth=-8174.544761394692 pbc="F F F"
O        1.59250000       0.62300000       0.00000000       6.97313335      -2.35985113       0.00000000
O        1.59250000      -0.62300000       0.00000000       6.97313335       2.35985113      -0.00000000
O        0.00000000       0.64500000       0.00000000      -6.97313335      -3.81182681       0.00000000
O        0.00000000      -0.64500000       0.00000000      -6.97313335       3.81182681      -0.00000000
4
Properties=species:S:1:pos:R:3:forces:R:3 energy=-8174.355154287685 dipole="0.3818465692772598 -0.0 0.0" energy_smooth=-8174.355154287685 pbc="F F F"
O        1.59250000       0.62300000       0.00000000       6.96842206      -2.67008289      -0.00000000
O        1.59250000      -0.62300000       0.00000000       6.96842206       2.67008289       0.00000000
O        0.00000000       0.66625000       0.00000000      -6.96842206      -5.03867458      -0.00000000
O        0.00000000      -0.66625000       0.00000000      -6.96842206       5.03867458      -0.00000000
4
Properties=species:S:1:pos:R:3:forces:R:3 energy=-8174.121872268218 dipole="0.541798673415035 -0.0 -0.0" energy_smooth=-8174.121872268218 pbc="F F F"
O        1.59250000       0.62300000       0.00000000       6.95320551      -2.95809838      -0.00000000
O        1.59250000      -0.62300000       0.00000000       6.95320551       2.95809837       0.00000000
O        0.00000000       0.68750000       0.00000000      -6.95320552      -5.88364155      -0.00000000
O        0.00000000      -0.68750000       0.00000000      -6.95320551       5.88364155       0.00000000
4
Properties=species:S:1:pos:R:3:forces:R:3 energy=-8173.859204037951 dipole="0.6859411146299281 0.0 -0.0" energy_smooth=-8173.859204037951 pbc="F F F"
O        1.59250000       0.62300000       0.00000000       6.92756242      -3.22554628      -0.00000000
O        1.59250000      -0.62300000       0.00000000       6.92756241       3.22554628       0.00000000
O        0.00000000       0.70875000       0.00000000      -6.92756242      -6.43455476      -0.00000000
O        0.00000000      -0.70875000       0.00000000      -6.92756241       6.43455476      -0.00000000
4
Properties=species:S:1:pos:R:3:forces:R:3 energy=-8173.578080130917 dipole="0.8158243582568201 0.0 -0.0" energy_smooth=-8173.578080130917 pbc="F F F"
O        1.59250000       0.62300000       0.00000000       6.89161813      -3.47384876       0.00000000
O        1.59250000      -0.62300000       0.00000000       6.89161813       3.47384876      -0.00000000
O        0.00000000       0.73000000       0.00000000      -6.89161813      -6.76282821      -0.00000000
O        0.00000000      -0.73000000       0.00000000      -6.89161813       6.76282820       0.00000000
4
Properties=species:S:1:pos:R:3:forces:R:3 energy=-8173.286752401616 dipole="0.9329480347015789 -0.0 -0.0" energy_smooth=-8173.286752401616 pbc="F F F"
O        1.59250000       0.62300000       0.00000000       6.84537071      -3.70434580       0.00000000
O        1.59250000      -0.62300000       0.00000000       6.84537071       3.70434579       0.00000000
O        0.00000000       0.75125000       0.00000000      -6.84537071      -6.92190925      -0.00000000
O        0.00000000      -0.75125000       0.00000000      -6.84537071       6.92190926      -0.00000000
4
Properties=species:S:1:pos:R:3:forces:R:3 energy=-8172.991587127088 dipole="1.0386084346540232 -0.0 -0.0" energy_smooth=-8172.991587127088 pbc="F F F"
O        1.59250000       0.62300000       0.00000000       6.78833687      -3.91818313       0.00000000
O        1.59250000      -0.62300000       0.00000000       6.78833687       3.91818314       0.00000000
O        0.00000000       0.77250000       0.00000000      -6.78833687      -6.94889631      -0.00000000
O        0.00000000      -0.77250000       0.00000000      -6.78833688       6.94889630      -0.00000000
4
Properties=species:S:1:pos:R:3:forces:R:3 energy=-8172.6975183223 dipole="1.1340001789459457 -0.0 -0.0" energy_smooth=-8172.6975183223 pbc="F F F"
O        1.59250000       0.62300000       0.00000000       6.71915609      -4.11628337      -0.00000000
O        1.59250000      -0.62300000       0.00000000       6.71915609       4.11628337       0.00000000
O        0.00000000       0.79375000       0.00000000      -6.71915609      -6.87548834       0.00000000
O        0.00000000      -0.79375000       0.00000000      -6.71915609       6.87548834       0.00000000
4
Properties=species:S:1:pos:R:3:forces:R:3 energy=-8172.40817697536 dipole="1.2201653836221031 0.0 0.0" energy_smooth=-8172.40817697536 pbc="F F F"
O        1.59250000       0.62300000       0.00000000       6.63731754      -4.29934334      -0.00000000
O        1.59250000      -0.62300000       0.00000000       6.63731754       4.29934334       0.00000000
O        0.00000000       0.81500000       0.00000000      -6.63731754      -6.73055013       0.00000000
O        0.00000000      -0.81500000       0.00000000      -6.63731754       6.73055013      -0.00000000
4
Properties=species:S:1:pos:R:3:forces:R:3 energy=-8172.12618309471 dipole="1.2980953297982383 0.0 0.0" energy_smooth=-8172.12618309471 pbc="F F F"
O        1.59250000       0.62300000       0.00000000       6.54498656      -4.46811658      -0.00000338
O        1.59250000      -0.62300000       0.00000000       6.54498660       4.46811654       0.00000338
O        0.00000000       0.83625000       0.00000000      -6.54498663      -6.53161298       0.00000233
O        0.00000000      -0.83625000       0.00000000      -6.54498653       6.53161303      -0.00000233
4
Properties=species:S:1:pos:R:3:forces:R:3 energy=-8171.853616995054 dipole="1.368577958874045 -0.0 0.0" energy_smooth=-8171.853616995054 pbc="F F F"
O        1.59250000       0.62300000       0.00000000       6.44407981      -4.62330991       0.00000005
O        1.59250000      -0.62300000       0.00000000       6.44407982       4.62330993      -0.00000006
O        0.00000000       0.85750000       0.00000000      -6.44407980      -6.28846880      -0.00000007
O        0.00000000      -0.85750000       0.00000000      -6.44407983       6.28846879       0.00000009
4
Properties=species:S:1:pos:R:3:forces:R:3 energy=-8171.5921472713735 dipole="1.4324012122492162 0.0 -0.0" energy_smooth=-8171.5921472713735 pbc="F F F"
O        1.59250000       0.62300000       0.00000000       6.33498189      -4.76551085      -0.00000684
O        1.59250000      -0.62300000       0.00000000       6.33498185       4.76551090       0.00000684
O        0.00000000       0.87875000       0.00000000      -6.33498183      -6.01114866       0.00000481
O        0.00000000      -0.87875000       0.00000000      -6.33498191       6.01114862      -0.00000481
4
Properties=species:S:1:pos:R:3:forces:R:3 energy=-8170.074775244447 dipole="1.3462360075730588 -0.0 -0.0" energy_smooth=-8171.330677547693 pbc="F F F"
O        1.59250000       0.62300000       0.00000000      -5.43192814       5.24542795      -0.00000000
O        1.59250000      -0.62300000       0.00000000      -5.43192814      -5.24542795      -0.00000000
O        0.00000000       0.90000000       0.00000000       5.43192814       8.04773556       0.00000000
O        0.00000000      -0.90000000       0.00000000       5.43192814      -8.04773555      -0.00000000
4
Properties=species:S:1:pos:R:3:forces:R:3 energy=-8170.850577809253 dipole="-2.141319714792786 0.0 0.0" energy_smooth=-8170.850577809253 pbc="F F F"
O        1.63500000       0.62300000       0.00000000       5.20066169       1.07118755      -0.00000000
O        1.63500000      -0.62300000       0.00000000       5.20066168      -1.07118755       0.00000000
O        0.00000000       0.47500000       0.00000000      -5.20066169      46.94422729       0.00000000
O        0.00000000      -0.47500000       0.00000000      -5.20066168     -46.94422729       0.00000000
4
Properties=species:S:1:pos:R:3:forces:R:3 energy=-8172.530326321109 dipole="-1.7395458533426338 -0.0 -0.0" energy_smooth=-8172.530326321109 pbc="F F F"
O        1.63500000       0.62300000       0.00000000       5.27243297       0.51555021      -0.00000000
O        1.63500000      -0.62300000       0.00000000       5.27243296      -0.51555021       0.00000000
O        0.00000000       0.49625000       0.00000000      -5.27243297      32.77201530       0.00000000
O        0.00000000      -0.49625000       0.00000000      -5.27243297     -32.77201530      -0.00000000
4
Properties=species:S:1:pos:R:3:forces:R:3 energy=-8173.68583299857 dipole="-1.373026015162637 0.0 -0.0" energy_smooth=-8173.68583299857 pbc="F F F"
O        1.63500000       0.62300000       0.00000000       5.33333503       0.00438062      -0.00000000
O        1.63500000      -0.62300000       0.00000000       5.33333503      -0.00438062       0.00000000
O        0.00000000       0.51750000       0.00000000      -5.33333503      22.11024657       0.00000000
O        0.00000000      -0.51750000       0.00000000      -5.33333503     -22.11024657      -0.00000000
4
Properties=species:S:1:pos:R:3:forces:R:3 energy=-8174.447072949512 dipole="-1.0396759681632854 -0.0 0.0" energy_smooth=-8174.447072949512 pbc="F F F"
O        1.63500000       0.62300000       0.00000000       5.38431598      -0.46580418      -0.00000000
O        1.63500000      -0.62300000       0.00000000       5.38431597       0.46580418      -0.00000000
O        0.00000000       0.53875000       0.00000000      -5.38431598      14.09586229       0.00000000
O        0.00000000      -0.53875000       0.00000000      -5.38431597     -14.09586229       0.00000000
4
Properties=species:S:1:pos:R:3:forces:R:3 energy=-8174.912600998218 dipole="-0.7372589754680288 0.0 0.0" energy_smooth=-8174.912600998218 pbc="F F F"
O        1.63500000       0.62300000       0.00000000       5.42601523      -0.89844733       0.00000000
O        1.63500000      -0.62300000       0.00000000       5.42601522       0.89844732       0.00000000
O        0.00000000       0.56000000       0.00000000      -5.42601523       8.10522981      -0.00000000
O        0.00000000      -0.56000000       0.00000000      -5.42601522      -8.10522980      -0.00000000
4
Properties=species:S:1:pos:R:3:forces:R:3 energy=-8175.157707033033 dipole="-0.46346204780679995 -0.0 0.0" energy_smooth=-8175.157707033033 pbc="F F F"
O        1.63500000       0.62300000       0.00000000       5.45881337      -1.29676784      -0.00000000
O        1.63500000      -0.62300000       0.00000000       5.45881337       1.29676784      -0.00000000
O        0.00000000       0.58125000       0.00000000      -5.45881337       3.64953370       0.00000000
O        0.00000000      -0.58125000       0.00000000      -5.45881337      -3.64953370       0.00000000
4
Properties=species:S:1:pos:R:3:forces:R:3 energy=-8175.239139990662 dipole="-0.21594677844502422 0.0 0.0" energy_smooth=-8175.239139990662 pbc="F F F"
O        1.63500000       0.62300000       0.00000000       5.48280542      -1.66382091      -0.00000000
O        1.63500000      -0.62300000       0.00000000       5.48280541       1.66382092       0.00000000
O        0.00000000       0.60250000       0.00000000      -5.48280542       0.35036262       0.00000000
O        0.00000000      -0.60250000       0.00000000      -5.48280541      -0.35036262      -0.00000000
4
Properties=species:S:1:pos:R:3:forces:R:3 energy=-8175.200010219713 dipole="0.00749815202934112 -0.0 -0.0" energy_smooth=-8175.200010219713 pbc="F F F"
O        1.63500000       0.62300000       0.00000000       5.49800256      -2.00233171      -0.00000000
O        1.63500000      -0.62300000       0.00000000       5.49800255       2.00233171       0.00000000
O        0.00000000       0.62375000       0.00000000      -5.49800255      -2.06350367       0.00000000
O        0.00000000      -0.62375000       0.00000000      -5.49800255       2.06350367      -0.00000000
4
Properties=species:S:1:pos:R:3:forces:R:3 energy=-8175.073185055272 dipole="0.2091094804928454 0.0 -0.0" energy_smooth=-8175.073185055272 pbc="F F F"
O        1.63500000       0.62300000       0.00000000       5.50441944      -2.31479316      -0.00000000
O        1.63500000      -0.62300000       0.00000000       5.50441943       2.31479316      -0.00000000
O        0.00000000       0.64500000       0.00000000      -5.50441944      -3.80912763       0.00000000
O        0.00000000      -0.64500000       0.00000000      -5.50441943       3.80912763       0.00000000
4
Properties=species:S:1:pos:R:3:forces:R:3 energy=-8174.883283714457 dipole="0.3909206041059879 0.0 0.0" energy_smooth=-8174.883283714457 pbc="F F F"
O        1.63500000       0.62300000       0.00000000       5.50200716      -2.60337377      -0.00000000
O        1.63500000      -0.62300000       0.00000000       5.50200716       2.60337377      -0.00000000
O        0.00000000       0.66625000       0.00000000      -5.50200716      -5.05522222       0.00000000
O        0.00000000      -0.66625000       0.00000000      -5.50200715       5.05522222      -0.00000000
4
Properties=species:S:1:pos:R:3:forces:R:3 energy=-8174.648889834792 dipole="0.5548632501712428 0.0 0.0" energy_smooth=-8174.648889834792 pbc="F F F"